
        6699 atoms 
           2 atom types 
  -60.0000000       60.000000     xlo xhi 
  -60.0000000       60.000000     ylo yhi 
  -60.0000000       60.000000     zlo zhi 
 Atoms 

	1	1	0.000000000	0.000000000	0.000000000
	2	1	0.000000000	-2.613412326	-1.218654182
	3	2	2.039000000	-0.697379072	-1.916033254
	4	1	2.039000000	-1.916033254	0.697379072
	5	2	-8.157000000	18.647717941	21.423074303
	6	1	-6.117000000	20.563751195	20.725695231
	7	1	-4.078000000	18.647717941	21.423074303
	8	2	-2.039000000	20.563751195	20.725695231
	9	1	0.000000000	18.647717941	21.423074303
	10	1	2.039000000	20.563751195	20.725695231
	11	2	4.078000000	18.647717941	21.423074303
	12	2	6.117000000	20.563751195	20.725695231
	13	1	8.157000000	18.647717941	21.423074303
	14	1	-12.235000000	14.814711741	22.818174468
	15	1	-10.196000000	16.731684687	22.120453375
	16	1	-8.157000000	14.814711741	22.818174468
	17	1	-6.117000000	16.731684687	22.120453375
	18	2	-6.117000000	15.512090813	24.734207721
	19	1	-4.078000000	17.429063759	24.036486629
	20	1	-4.078000000	14.814711741	22.818174468
	21	2	-2.039000000	16.731684687	22.120453375
	22	1	-2.039000000	15.512090813	24.734207721
	23	2	0.000000000	17.429063759	24.036486629
	24	1	0.000000000	14.814711741	22.818174468
	25	2	2.039000000	16.731684687	22.120453375
	26	1	2.039000000	15.512090813	24.734207721
	27	2	4.078000000	17.429063759	24.036486629
	28	1	4.078000000	14.814711741	22.818174468
	29	2	6.117000000	16.731684687	22.120453375
	30	2	6.117000000	15.512090813	24.734207721
	31	2	8.157000000	14.814711741	22.818174468
	32	2	10.196000000	16.731684687	22.120453375
	33	1	12.235000000	14.814711741	22.818174468
	34	1	-12.235000000	10.982645233	24.212932612
	35	1	-10.196000000	12.898678487	23.515553540
	36	1	-8.157000000	13.596057559	25.431586794
	37	1	-8.157000000	10.982645233	24.212932612
	38	1	-6.117000000	12.898678487	23.515553540
	39	2	-6.117000000	11.680024305	26.128965866
	40	1	-4.078000000	13.596057559	25.431586794
	41	1	-4.078000000	10.982645233	24.212932612
	42	2	-2.039000000	12.898678487	23.515553540
	43	1	-2.039000000	11.680024305	26.128965866
	44	1	0.000000000	13.596057559	25.431586794
	45	1	0.000000000	10.982645233	24.212932612
	46	2	2.039000000	12.898678487	23.515553540
	47	1	2.039000000	11.680024305	26.128965866
	48	1	4.078000000	13.596057559	25.431586794
	49	2	4.078000000	10.982645233	24.212932612
	50	2	6.117000000	12.898678487	23.515553540
	51	2	6.117000000	11.680024305	26.128965866
	52	1	8.157000000	13.596057559	25.431586794
	53	2	8.157000000	10.982645233	24.212932612
	54	2	10.196000000	12.898678487	23.515553540
	55	1	12.235000000	10.982645233	24.212932612
	56	2	-12.235000000	7.150578726	25.607690757
	57	2	-10.196000000	9.066611979	24.910311684
	58	1	-8.157000000	9.763991052	26.826344938
	59	2	-8.157000000	7.150578726	25.607690757
	60	2	-6.117000000	9.066611979	24.910311684
	61	1	-6.117000000	7.847957798	27.523724010
	62	1	-4.078000000	9.763991052	26.826344938
	63	1	-4.078000000	7.150578726	25.607690757
	64	1	-2.039000000	9.066611979	24.910311684
	65	1	-2.039000000	7.847957798	27.523724010
	66	2	0.000000000	9.763991052	26.826344938
	67	2	0.000000000	7.150578726	25.607690757
	68	2	2.039000000	9.066611979	24.910311684
	69	2	2.039000000	7.847957798	27.523724010
	70	1	4.078000000	9.763991052	26.826344938
	71	2	4.078000000	7.150578726	25.607690757
	72	1	6.117000000	9.066611979	24.910311684
	73	2	6.117000000	7.847957798	27.523724010
	74	2	8.157000000	9.763991052	26.826344938
	75	1	8.157000000	7.150578726	25.607690757
	76	2	10.196000000	9.066611979	24.910311684
	77	2	12.235000000	7.150578726	25.607690757
	78	1	-12.235000000	3.318512218	27.002448901
	79	1	-10.196000000	5.234545472	26.305069829
	80	1	-8.157000000	5.931924544	28.221103083
	81	2	-8.157000000	3.318512218	27.002448901
	82	1	-6.117000000	5.234545472	26.305069829
	83	1	-6.117000000	4.015891290	28.918482155
	84	2	-4.078000000	5.931924544	28.221103083
	85	2	-4.078000000	3.318512218	27.002448901
	86	2	-2.039000000	5.234545472	26.305069829
	87	1	-2.039000000	4.015891290	28.918482155
	88	1	0.000000000	5.931924544	28.221103083
	89	2	0.000000000	3.318512218	27.002448901
	90	1	2.039000000	5.234545472	26.305069829
	91	2	2.039000000	4.015891290	28.918482155
	92	1	4.078000000	5.931924544	28.221103083
	93	1	4.078000000	3.318512218	27.002448901
	94	2	6.117000000	5.234545472	26.305069829
	95	2	6.117000000	4.015891290	28.918482155
	96	2	8.157000000	5.931924544	28.221103083
	97	2	8.157000000	3.318512218	27.002448901
	98	2	10.196000000	5.234545472	26.305069829
	99	1	12.235000000	3.318512218	27.002448901
	100	2	-10.196000000	1.401539272	27.700169994
	101	2	-8.157000000	-0.514493982	28.397549066
	102	2	-6.117000000	1.401539272	27.700169994
	103	1	-4.078000000	2.098918344	29.616203247
	104	1	-4.078000000	-0.514493982	28.397549066
	105	2	-2.039000000	1.401539272	27.700169994
	106	1	0.000000000	2.098918344	29.616203247
	107	2	0.000000000	-0.514493982	28.397549066
	108	2	2.039000000	1.401539272	27.700169994
	109	2	4.078000000	2.098918344	29.616203247
	110	1	4.078000000	-0.514493982	28.397549066
	111	1	6.117000000	1.401539272	27.700169994
	112	2	8.157000000	-0.514493982	28.397549066
	113	1	10.196000000	1.401539272	27.700169994
	114	2	-6.117000000	-2.430527236	29.094928138
	115	2	-2.039000000	-2.430527236	29.094928138
	116	1	2.039000000	-2.430527236	29.094928138
	117	2	6.117000000	-2.430527236	29.094928138
	118	2	-4.078000000	24.917092812	14.801491507
	119	2	0.000000000	24.917092812	14.801491507
	120	1	4.078000000	24.917092812	14.801491507
	121	1	-12.235000000	21.085026304	16.196249651
	122	2	-10.196000000	23.001059558	15.498870579
	123	2	-8.157000000	21.085026304	16.196249651
	124	1	-6.117000000	23.001059558	15.498870579
	125	2	-6.117000000	21.782405376	18.112282905
	126	1	-4.078000000	23.698438630	17.414903833
	127	2	-4.078000000	21.085026304	16.196249651
	128	2	-2.039000000	23.001059558	15.498870579
	129	1	-2.039000000	21.782405376	18.112282905
	130	2	0.000000000	23.698438630	17.414903833
	131	2	0.000000000	21.085026304	16.196249651
	132	1	2.039000000	23.001059558	15.498870579
	133	2	2.039000000	21.782405376	18.112282905
	134	2	4.078000000	23.698438630	17.414903833
	135	1	4.078000000	21.085026304	16.196249651
	136	1	6.117000000	23.001059558	15.498870579
	137	1	6.117000000	21.782405376	18.112282905
	138	1	8.157000000	21.085026304	16.196249651
	139	2	10.196000000	23.001059558	15.498870579
	140	2	12.235000000	21.085026304	16.196249651
	141	2	-16.313000000	17.252959796	17.591007796
	142	1	-14.274000000	19.168993050	16.893628723
	143	1	-12.235000000	19.866372122	18.809661977
	144	1	-12.235000000	17.252959796	17.591007796
	145	2	-10.196000000	19.168993050	16.893628723
	146	2	-10.196000000	17.950338869	19.507041049
	147	1	-8.157000000	19.866372122	18.809661977
	148	1	-8.157000000	17.252959796	17.591007796
	149	2	-6.117000000	19.168993050	16.893628723
	150	1	-6.117000000	17.950338869	19.507041049
	151	1	-4.078000000	19.866372122	18.809661977
	152	1	-4.078000000	17.252959796	17.591007796
	153	2	-2.039000000	19.168993050	16.893628723
	154	1	-2.039000000	17.950338869	19.507041049
	155	1	0.000000000	19.866372122	18.809661977
	156	2	0.000000000	17.252959796	17.591007796
	157	2	2.039000000	19.168993050	16.893628723
	158	2	2.039000000	17.950338869	19.507041049
	159	1	4.078000000	19.866372122	18.809661977
	160	1	4.078000000	17.252959796	17.591007796
	161	2	6.117000000	19.168993050	16.893628723
	162	2	6.117000000	17.950338869	19.507041049
	163	1	8.157000000	19.866372122	18.809661977
	164	1	8.157000000	17.252959796	17.591007796
	165	2	10.196000000	19.168993050	16.893628723
	166	1	10.196000000	17.950338869	19.507041049
	167	2	12.235000000	19.866372122	18.809661977
	168	1	12.235000000	17.252959796	17.591007796
	169	2	14.274000000	19.168993050	16.893628723
	170	1	16.313000000	17.252959796	17.591007796
	171	1	-16.313000000	13.419953596	18.986107960
	172	2	-14.274000000	15.336926543	18.288386868
	173	2	-14.274000000	14.117332669	20.902141214
	174	2	-12.235000000	16.034305615	20.204420122
	175	2	-12.235000000	13.419953596	18.986107960
	176	2	-10.196000000	15.336926543	18.288386868
	177	1	-10.196000000	14.117332669	20.902141214
	178	2	-8.157000000	16.034305615	20.204420122
	179	2	-8.157000000	13.419953596	18.986107960
	180	2	-6.117000000	15.336926543	18.288386868
	181	2	-6.117000000	14.117332669	20.902141214
	182	1	-4.078000000	16.034305615	20.204420122
	183	2	-4.078000000	13.419953596	18.986107960
	184	2	-2.039000000	15.336926543	18.288386868
	185	2	-2.039000000	14.117332669	20.902141214
	186	2	0.000000000	16.034305615	20.204420122
	187	1	0.000000000	13.419953596	18.986107960
	188	2	2.039000000	15.336926543	18.288386868
	189	1	2.039000000	14.117332669	20.902141214
	190	2	4.078000000	16.034305615	20.204420122
	191	2	4.078000000	13.419953596	18.986107960
	192	2	6.117000000	15.336926543	18.288386868
	193	1	6.117000000	14.117332669	20.902141214
	194	2	8.157000000	16.034305615	20.204420122
	195	1	8.157000000	13.419953596	18.986107960
	196	2	10.196000000	15.336926543	18.288386868
	197	2	10.196000000	14.117332669	20.902141214
	198	1	12.235000000	16.034305615	20.204420122
	199	2	12.235000000	13.419953596	18.986107960
	200	2	14.274000000	15.336926543	18.288386868
	201	2	14.274000000	14.117332669	20.902141214
	202	1	16.313000000	13.419953596	18.986107960
	203	1	-18.352000000	11.503920343	19.683487032
	204	1	-16.313000000	12.201299415	21.599520286
	205	2	-16.313000000	9.587887089	20.380866105
	206	2	-14.274000000	11.503920343	19.683487032
	207	1	-14.274000000	10.285266161	22.296899358
	208	1	-12.235000000	12.201299415	21.599520286
	209	1	-12.235000000	9.587887089	20.380866105
	210	2	-10.196000000	11.503920343	19.683487032
	211	1	-10.196000000	10.285266161	22.296899358
	212	1	-8.157000000	12.201299415	21.599520286
	213	1	-8.157000000	9.587887089	20.380866105
	214	2	-6.117000000	11.503920343	19.683487032
	215	1	-6.117000000	10.285266161	22.296899358
	216	2	-4.078000000	12.201299415	21.599520286
	217	2	-4.078000000	9.587887089	20.380866105
	218	1	-2.039000000	11.503920343	19.683487032
	219	1	-2.039000000	10.285266161	22.296899358
	220	2	0.000000000	12.201299415	21.599520286
	221	2	0.000000000	9.587887089	20.380866105
	222	1	2.039000000	11.503920343	19.683487032
	223	1	2.039000000	10.285266161	22.296899358
	224	2	4.078000000	12.201299415	21.599520286
	225	1	4.078000000	9.587887089	20.380866105
	226	2	6.117000000	11.503920343	19.683487032
	227	1	6.117000000	10.285266161	22.296899358
	228	1	8.157000000	12.201299415	21.599520286
	229	2	8.157000000	9.587887089	20.380866105
	230	2	10.196000000	11.503920343	19.683487032
	231	1	10.196000000	10.285266161	22.296899358
	232	1	12.235000000	12.201299415	21.599520286
	233	1	12.235000000	9.587887089	20.380866105
	234	2	14.274000000	11.503920343	19.683487032
	235	1	14.274000000	10.285266161	22.296899358
	236	2	16.313000000	12.201299415	21.599520286
	237	1	16.313000000	9.587887089	20.380866105
	238	2	18.352000000	11.503920343	19.683487032
	239	2	-18.352000000	7.671853835	21.078245177
	240	1	-16.313000000	8.369232907	22.994278431
	241	2	-16.313000000	5.755820581	21.775624249
	242	1	-14.274000000	7.671853835	21.078245177
	243	2	-14.274000000	6.453199653	23.691657503
	244	1	-12.235000000	8.369232907	22.994278431
	245	1	-12.235000000	5.755820581	21.775624249
	246	2	-10.196000000	7.671853835	21.078245177
	247	2	-10.196000000	6.453199653	23.691657503
	248	2	-8.157000000	8.369232907	22.994278431
	249	2	-8.157000000	5.755820581	21.775624249
	250	2	-6.117000000	7.671853835	21.078245177
	251	1	-6.117000000	6.453199653	23.691657503
	252	1	-4.078000000	8.369232907	22.994278431
	253	2	-4.078000000	5.755820581	21.775624249
	254	2	-2.039000000	7.671853835	21.078245177
	255	1	-2.039000000	6.453199653	23.691657503
	256	1	0.000000000	8.369232907	22.994278431
	257	1	0.000000000	5.755820581	21.775624249
	258	2	2.039000000	7.671853835	21.078245177
	259	1	2.039000000	6.453199653	23.691657503
	260	1	4.078000000	8.369232907	22.994278431
	261	1	4.078000000	5.755820581	21.775624249
	262	1	6.117000000	7.671853835	21.078245177
	263	2	6.117000000	6.453199653	23.691657503
	264	2	8.157000000	8.369232907	22.994278431
	265	2	8.157000000	5.755820581	21.775624249
	266	2	10.196000000	7.671853835	21.078245177
	267	1	10.196000000	6.453199653	23.691657503
	268	2	12.235000000	8.369232907	22.994278431
	269	2	12.235000000	5.755820581	21.775624249
	270	2	14.274000000	7.671853835	21.078245177
	271	2	14.274000000	6.453199653	23.691657503
	272	2	16.313000000	8.369232907	22.994278431
	273	2	16.313000000	5.755820581	21.775624249
	274	2	18.352000000	7.671853835	21.078245177
	275	2	-18.352000000	3.839787327	22.473003321
	276	2	-16.313000000	4.537166400	24.389036575
	277	2	-16.313000000	1.923754074	23.170382394
	278	2	-14.274000000	3.839787327	22.473003321
	279	2	-14.274000000	2.621133146	25.086415647
	280	1	-12.235000000	4.537166400	24.389036575
	281	1	-12.235000000	1.923754074	23.170382394
	282	1	-10.196000000	3.839787327	22.473003321
	283	1	-10.196000000	2.621133146	25.086415647
	284	2	-8.157000000	4.537166400	24.389036575
	285	1	-8.157000000	1.923754074	23.170382394
	286	2	-6.117000000	3.839787327	22.473003321
	287	1	-6.117000000	2.621133146	25.086415647
	288	1	-4.078000000	4.537166400	24.389036575
	289	2	-4.078000000	1.923754074	23.170382394
	290	1	-2.039000000	3.839787327	22.473003321
	291	2	-2.039000000	2.621133146	25.086415647
	292	1	0.000000000	4.537166400	24.389036575
	293	1	0.000000000	1.923754074	23.170382394
	294	1	2.039000000	3.839787327	22.473003321
	295	1	2.039000000	2.621133146	25.086415647
	296	2	4.078000000	4.537166400	24.389036575
	297	1	4.078000000	1.923754074	23.170382394
	298	2	6.117000000	3.839787327	22.473003321
	299	2	6.117000000	2.621133146	25.086415647
	300	2	8.157000000	4.537166400	24.389036575
	301	1	8.157000000	1.923754074	23.170382394
	302	1	10.196000000	3.839787327	22.473003321
	303	1	10.196000000	2.621133146	25.086415647
	304	2	12.235000000	4.537166400	24.389036575
	305	1	12.235000000	1.923754074	23.170382394
	306	2	14.274000000	3.839787327	22.473003321
	307	1	14.274000000	2.621133146	25.086415647
	308	1	16.313000000	4.537166400	24.389036575
	309	1	16.313000000	1.923754074	23.170382394
	310	2	18.352000000	3.839787327	22.473003321
	311	2	-16.313000000	-1.909252127	24.565482558
	312	1	-14.274000000	0.006781127	23.868103486
	313	1	-12.235000000	0.704160199	25.784136740
	314	1	-12.235000000	-1.909252127	24.565482558
	315	2	-10.196000000	0.006781127	23.868103486
	316	2	-10.196000000	-1.211873054	26.481515812
	317	2	-8.157000000	0.704160199	25.784136740
	318	2	-8.157000000	-1.909252127	24.565482558
	319	1	-6.117000000	0.006781127	23.868103486
	320	2	-6.117000000	-1.211873054	26.481515812
	321	1	-4.078000000	0.704160199	25.784136740
	322	2	-4.078000000	-1.909252127	24.565482558
	323	1	-2.039000000	0.006781127	23.868103486
	324	1	-2.039000000	-1.211873054	26.481515812
	325	1	0.000000000	0.704160199	25.784136740
	326	1	0.000000000	-1.909252127	24.565482558
	327	1	2.039000000	0.006781127	23.868103486
	328	1	2.039000000	-1.211873054	26.481515812
	329	1	4.078000000	0.704160199	25.784136740
	330	1	4.078000000	-1.909252127	24.565482558
	331	2	6.117000000	0.006781127	23.868103486
	332	2	6.117000000	-1.211873054	26.481515812
	333	1	8.157000000	0.704160199	25.784136740
	334	2	8.157000000	-1.909252127	24.565482558
	335	2	10.196000000	0.006781127	23.868103486
	336	2	10.196000000	-1.211873054	26.481515812
	337	2	12.235000000	0.704160199	25.784136740
	338	1	12.235000000	-1.909252127	24.565482558
	339	2	14.274000000	0.006781127	23.868103486
	340	1	16.313000000	-1.909252127	24.565482558
	341	2	-14.274000000	-3.825285380	25.262861630
	342	1	-12.235000000	-3.127906308	27.178894884
	343	2	-12.235000000	-5.741318634	25.960240703
	344	1	-10.196000000	-3.825285380	25.262861630
	345	1	-8.157000000	-3.127906308	27.178894884
	346	2	-8.157000000	-5.741318634	25.960240703
	347	2	-6.117000000	-3.825285380	25.262861630
	348	1	-6.117000000	-5.043939562	27.876273956
	349	2	-4.078000000	-3.127906308	27.178894884
	350	2	-4.078000000	-5.741318634	25.960240703
	351	2	-2.039000000	-3.825285380	25.262861630
	352	1	-2.039000000	-5.043939562	27.876273956
	353	1	0.000000000	-3.127906308	27.178894884
	354	2	0.000000000	-5.741318634	25.960240703
	355	1	2.039000000	-3.825285380	25.262861630
	356	1	2.039000000	-5.043939562	27.876273956
	357	2	4.078000000	-3.127906308	27.178894884
	358	2	4.078000000	-5.741318634	25.960240703
	359	2	6.117000000	-3.825285380	25.262861630
	360	2	6.117000000	-5.043939562	27.876273956
	361	2	8.157000000	-3.127906308	27.178894884
	362	1	8.157000000	-5.741318634	25.960240703
	363	2	10.196000000	-3.825285380	25.262861630
	364	2	12.235000000	-3.127906308	27.178894884
	365	1	12.235000000	-5.741318634	25.960240703
	366	2	14.274000000	-3.825285380	25.262861630
	367	2	-10.196000000	-7.657351888	26.657619775
	368	2	-6.117000000	-7.657351888	26.657619775
	369	1	-4.078000000	-6.959972816	28.573653029
	370	1	-4.078000000	-9.573385142	27.354998847
	371	2	-2.039000000	-7.657351888	26.657619775
	372	1	0.000000000	-6.959972816	28.573653029
	373	2	0.000000000	-9.573385142	27.354998847
	374	1	2.039000000	-7.657351888	26.657619775
	375	2	4.078000000	-6.959972816	28.573653029
	376	2	4.078000000	-9.573385142	27.354998847
	377	2	6.117000000	-7.657351888	26.657619775
	378	1	10.196000000	-7.657351888	26.657619775
	379	2	-4.078000000	27.354998847	9.573385142
	380	2	0.000000000	27.354998847	9.573385142
	381	2	4.078000000	27.354998847	9.573385142
	382	2	-12.235000000	23.521992647	10.968485306
	383	2	-10.196000000	25.438025901	10.271106234
	384	1	-10.196000000	24.219371719	12.884518560
	385	2	-8.157000000	26.135404973	12.187139488
	386	2	-8.157000000	23.521992647	10.968485306
	387	2	-6.117000000	25.438025901	10.271106234
	388	1	-6.117000000	24.219371719	12.884518560
	389	1	-4.078000000	26.135404973	12.187139488
	390	1	-4.078000000	23.521992647	10.968485306
	391	1	-2.039000000	25.438025901	10.271106234
	392	2	-2.039000000	24.219371719	12.884518560
	393	1	0.000000000	26.135404973	12.187139488
	394	1	0.000000000	23.521992647	10.968485306
	395	1	2.039000000	25.438025901	10.271106234
	396	1	2.039000000	24.219371719	12.884518560
	397	1	4.078000000	26.135404973	12.187139488
	398	2	4.078000000	23.521992647	10.968485306
	399	2	6.117000000	25.438025901	10.271106234
	400	1	6.117000000	24.219371719	12.884518560
	401	2	8.157000000	26.135404973	12.187139488
	402	1	8.157000000	23.521992647	10.968485306
	403	2	10.196000000	25.438025901	10.271106234
	404	2	10.196000000	24.219371719	12.884518560
	405	2	12.235000000	23.521992647	10.968485306
	406	2	-16.313000000	19.689926139	12.363243451
	407	1	-14.274000000	21.605959393	11.665864379
	408	1	-14.274000000	20.387305212	14.279276705
	409	2	-12.235000000	22.303338465	13.581897632
	410	2	-12.235000000	19.689926139	12.363243451
	411	2	-10.196000000	21.605959393	11.665864379
	412	1	-10.196000000	20.387305212	14.279276705
	413	2	-8.157000000	22.303338465	13.581897632
	414	1	-8.157000000	19.689926139	12.363243451
	415	2	-6.117000000	21.605959393	11.665864379
	416	2	-6.117000000	20.387305212	14.279276705
	417	2	-4.078000000	22.303338465	13.581897632
	418	2	-4.078000000	19.689926139	12.363243451
	419	2	-2.039000000	21.605959393	11.665864379
	420	1	-2.039000000	20.387305212	14.279276705
	421	2	0.000000000	22.303338465	13.581897632
	422	2	0.000000000	19.689926139	12.363243451
	423	1	2.039000000	21.605959393	11.665864379
	424	1	2.039000000	20.387305212	14.279276705
	425	1	4.078000000	22.303338465	13.581897632
	426	1	4.078000000	19.689926139	12.363243451
	427	1	6.117000000	21.605959393	11.665864379
	428	2	6.117000000	20.387305212	14.279276705
	429	2	8.157000000	22.303338465	13.581897632
	430	2	8.157000000	19.689926139	12.363243451
	431	2	10.196000000	21.605959393	11.665864379
	432	1	10.196000000	20.387305212	14.279276705
	433	2	12.235000000	22.303338465	13.581897632
	434	1	12.235000000	19.689926139	12.363243451
	435	2	14.274000000	21.605959393	11.665864379
	436	1	14.274000000	20.387305212	14.279276705
	437	2	16.313000000	19.689926139	12.363243451
	438	1	-20.391000000	15.857859632	13.758001595
	439	1	-18.352000000	17.773892886	13.060622523
	440	2	-18.352000000	16.555238704	15.674034849
	441	1	-16.313000000	18.471271958	14.976655777
	442	2	-16.313000000	15.857859632	13.758001595
	443	2	-14.274000000	17.773892886	13.060622523
	444	1	-14.274000000	16.555238704	15.674034849
	445	2	-12.235000000	18.471271958	14.976655777
	446	1	-12.235000000	15.857859632	13.758001595
	447	1	-10.196000000	17.773892886	13.060622523
	448	1	-10.196000000	16.555238704	15.674034849
	449	2	-8.157000000	18.471271958	14.976655777
	450	1	-8.157000000	15.857859632	13.758001595
	451	1	-6.117000000	17.773892886	13.060622523
	452	1	-6.117000000	16.555238704	15.674034849
	453	1	-4.078000000	18.471271958	14.976655777
	454	2	-4.078000000	15.857859632	13.758001595
	455	1	-2.039000000	17.773892886	13.060622523
	456	2	-2.039000000	16.555238704	15.674034849
	457	1	0.000000000	18.471271958	14.976655777
	458	2	0.000000000	15.857859632	13.758001595
	459	1	2.039000000	17.773892886	13.060622523
	460	1	2.039000000	16.555238704	15.674034849
	461	2	4.078000000	18.471271958	14.976655777
	462	2	4.078000000	15.857859632	13.758001595
	463	1	6.117000000	17.773892886	13.060622523
	464	2	6.117000000	16.555238704	15.674034849
	465	2	8.157000000	18.471271958	14.976655777
	466	2	8.157000000	15.857859632	13.758001595
	467	2	10.196000000	17.773892886	13.060622523
	468	1	10.196000000	16.555238704	15.674034849
	469	1	12.235000000	18.471271958	14.976655777
	470	2	12.235000000	15.857859632	13.758001595
	471	1	14.274000000	17.773892886	13.060622523
	472	2	14.274000000	16.555238704	15.674034849
	473	1	16.313000000	18.471271958	14.976655777
	474	1	16.313000000	15.857859632	13.758001595
	475	1	18.352000000	17.773892886	13.060622523
	476	1	18.352000000	16.555238704	15.674034849
	477	2	20.391000000	15.857859632	13.758001595
	478	2	-20.391000000	14.639205450	16.371413921
	479	2	-20.391000000	12.024853432	15.153101760
	480	2	-18.352000000	13.941826378	14.455380668
	481	2	-18.352000000	12.722232504	17.069135014
	482	1	-16.313000000	14.639205450	16.371413921
	483	2	-16.313000000	12.024853432	15.153101760
	484	1	-14.274000000	13.941826378	14.455380668
	485	1	-14.274000000	12.722232504	17.069135014
	486	2	-12.235000000	14.639205450	16.371413921
	487	1	-12.235000000	12.024853432	15.153101760
	488	2	-10.196000000	13.941826378	14.455380668
	489	1	-10.196000000	12.722232504	17.069135014
	490	1	-8.157000000	14.639205450	16.371413921
	491	1	-8.157000000	12.024853432	15.153101760
	492	1	-6.117000000	13.941826378	14.455380668
	493	1	-6.117000000	12.722232504	17.069135014
	494	1	-4.078000000	14.639205450	16.371413921
	495	1	-4.078000000	12.024853432	15.153101760
	496	1	-2.039000000	13.941826378	14.455380668
	497	1	-2.039000000	12.722232504	17.069135014
	498	2	0.000000000	14.639205450	16.371413921
	499	2	0.000000000	12.024853432	15.153101760
	500	2	2.039000000	13.941826378	14.455380668
	501	1	2.039000000	12.722232504	17.069135014
	502	2	4.078000000	14.639205450	16.371413921
	503	1	4.078000000	12.024853432	15.153101760
	504	1	6.117000000	13.941826378	14.455380668
	505	2	6.117000000	12.722232504	17.069135014
	506	1	8.157000000	14.639205450	16.371413921
	507	1	8.157000000	12.024853432	15.153101760
	508	1	10.196000000	13.941826378	14.455380668
	509	1	10.196000000	12.722232504	17.069135014
	510	2	12.235000000	14.639205450	16.371413921
	511	1	12.235000000	12.024853432	15.153101760
	512	1	14.274000000	13.941826378	14.455380668
	513	2	14.274000000	12.722232504	17.069135014
	514	1	16.313000000	14.639205450	16.371413921
	515	1	16.313000000	12.024853432	15.153101760
	516	2	18.352000000	13.941826378	14.455380668
	517	1	18.352000000	12.722232504	17.069135014
	518	1	20.391000000	14.639205450	16.371413921
	519	1	20.391000000	12.024853432	15.153101760
	520	1	-22.431000000	10.108820178	15.850480832
	521	2	-20.391000000	10.806199250	17.766514086
	522	1	-20.391000000	8.192786924	16.547859904
	523	2	-18.352000000	10.108820178	15.850480832
	524	2	-18.352000000	8.890165996	18.463893158
	525	2	-16.313000000	10.806199250	17.766514086
	526	2	-16.313000000	8.192786924	16.547859904
	527	1	-14.274000000	10.108820178	15.850480832
	528	2	-14.274000000	8.890165996	18.463893158
	529	1	-12.235000000	10.806199250	17.766514086
	530	2	-12.235000000	8.192786924	16.547859904
	531	1	-10.196000000	10.108820178	15.850480832
	532	1	-10.196000000	8.890165996	18.463893158
	533	1	-8.157000000	10.806199250	17.766514086
	534	1	-8.157000000	8.192786924	16.547859904
	535	2	-6.117000000	10.108820178	15.850480832
	536	2	-6.117000000	8.890165996	18.463893158
	537	1	-4.078000000	10.806199250	17.766514086
	538	2	-4.078000000	8.192786924	16.547859904
	539	2	-2.039000000	10.108820178	15.850480832
	540	2	-2.039000000	8.890165996	18.463893158
	541	2	0.000000000	10.806199250	17.766514086
	542	2	0.000000000	8.192786924	16.547859904
	543	1	2.039000000	10.108820178	15.850480832
	544	1	2.039000000	8.890165996	18.463893158
	545	1	4.078000000	10.806199250	17.766514086
	546	1	4.078000000	8.192786924	16.547859904
	547	2	6.117000000	10.108820178	15.850480832
	548	1	6.117000000	8.890165996	18.463893158
	549	1	8.157000000	10.806199250	17.766514086
	550	1	8.157000000	8.192786924	16.547859904
	551	2	10.196000000	10.108820178	15.850480832
	552	2	10.196000000	8.890165996	18.463893158
	553	2	12.235000000	10.806199250	17.766514086
	554	1	12.235000000	8.192786924	16.547859904
	555	2	14.274000000	10.108820178	15.850480832
	556	2	14.274000000	8.890165996	18.463893158
	557	2	16.313000000	10.806199250	17.766514086
	558	2	16.313000000	8.192786924	16.547859904
	559	1	18.352000000	10.108820178	15.850480832
	560	2	18.352000000	8.890165996	18.463893158
	561	2	20.391000000	10.806199250	17.766514086
	562	1	20.391000000	8.192786924	16.547859904
	563	1	22.431000000	10.108820178	15.850480832
	564	2	-22.431000000	6.276753670	17.245238977
	565	2	-20.391000000	6.974132743	19.161272230
	566	1	-20.391000000	4.360720417	17.942618049
	567	2	-18.352000000	6.276753670	17.245238977
	568	1	-18.352000000	5.058099489	19.858651303
	569	2	-16.313000000	6.974132743	19.161272230
	570	2	-16.313000000	4.360720417	17.942618049
	571	1	-14.274000000	6.276753670	17.245238977
	572	1	-14.274000000	5.058099489	19.858651303
	573	2	-12.235000000	6.974132743	19.161272230
	574	2	-12.235000000	4.360720417	17.942618049
	575	1	-10.196000000	6.276753670	17.245238977
	576	2	-10.196000000	5.058099489	19.858651303
	577	2	-8.157000000	6.974132743	19.161272230
	578	1	-8.157000000	4.360720417	17.942618049
	579	2	-6.117000000	6.276753670	17.245238977
	580	2	-6.117000000	5.058099489	19.858651303
	581	1	-4.078000000	6.974132743	19.161272230
	582	1	-4.078000000	4.360720417	17.942618049
	583	2	-2.039000000	6.276753670	17.245238977
	584	1	-2.039000000	5.058099489	19.858651303
	585	1	0.000000000	6.974132743	19.161272230
	586	1	0.000000000	4.360720417	17.942618049
	587	2	2.039000000	6.276753670	17.245238977
	588	1	2.039000000	5.058099489	19.858651303
	589	2	4.078000000	6.974132743	19.161272230
	590	1	4.078000000	4.360720417	17.942618049
	591	1	6.117000000	6.276753670	17.245238977
	592	2	6.117000000	5.058099489	19.858651303
	593	2	8.157000000	6.974132743	19.161272230
	594	1	8.157000000	4.360720417	17.942618049
	595	1	10.196000000	6.276753670	17.245238977
	596	2	10.196000000	5.058099489	19.858651303
	597	2	12.235000000	6.974132743	19.161272230
	598	2	12.235000000	4.360720417	17.942618049
	599	2	14.274000000	6.276753670	17.245238977
	600	1	14.274000000	5.058099489	19.858651303
	601	1	16.313000000	6.974132743	19.161272230
	602	2	16.313000000	4.360720417	17.942618049
	603	2	18.352000000	6.276753670	17.245238977
	604	2	18.352000000	5.058099489	19.858651303
	605	2	20.391000000	6.974132743	19.161272230
	606	1	20.391000000	4.360720417	17.942618049
	607	2	22.431000000	6.276753670	17.245238977
	608	1	-22.431000000	2.444687163	18.639997121
	609	2	-20.391000000	3.142066235	20.556030375
	610	1	-20.391000000	0.528653909	19.337376193
	611	1	-18.352000000	2.444687163	18.639997121
	612	1	-18.352000000	1.226032981	21.253409447
	613	1	-16.313000000	3.142066235	20.556030375
	614	1	-16.313000000	0.528653909	19.337376193
	615	1	-14.274000000	2.444687163	18.639997121
	616	1	-14.274000000	1.226032981	21.253409447
	617	1	-12.235000000	3.142066235	20.556030375
	618	2	-12.235000000	0.528653909	19.337376193
	619	1	-10.196000000	2.444687163	18.639997121
	620	1	-10.196000000	1.226032981	21.253409447
	621	2	-8.157000000	3.142066235	20.556030375
	622	2	-8.157000000	0.528653909	19.337376193
	623	1	-6.117000000	2.444687163	18.639997121
	624	1	-6.117000000	1.226032981	21.253409447
	625	2	-4.078000000	3.142066235	20.556030375
	626	1	-4.078000000	0.528653909	19.337376193
	627	1	-2.039000000	2.444687163	18.639997121
	628	2	-2.039000000	1.226032981	21.253409447
	629	2	0.000000000	3.142066235	20.556030375
	630	1	0.000000000	0.528653909	19.337376193
	631	1	2.039000000	2.444687163	18.639997121
	632	1	2.039000000	1.226032981	21.253409447
	633	1	4.078000000	3.142066235	20.556030375
	634	2	4.078000000	0.528653909	19.337376193
	635	2	6.117000000	2.444687163	18.639997121
	636	1	6.117000000	1.226032981	21.253409447
	637	2	8.157000000	3.142066235	20.556030375
	638	1	8.157000000	0.528653909	19.337376193
	639	1	10.196000000	2.444687163	18.639997121
	640	2	10.196000000	1.226032981	21.253409447
	641	1	12.235000000	3.142066235	20.556030375
	642	2	12.235000000	0.528653909	19.337376193
	643	1	14.274000000	2.444687163	18.639997121
	644	1	14.274000000	1.226032981	21.253409447
	645	1	16.313000000	3.142066235	20.556030375
	646	1	16.313000000	0.528653909	19.337376193
	647	1	18.352000000	2.444687163	18.639997121
	648	2	18.352000000	1.226032981	21.253409447
	649	2	20.391000000	3.142066235	20.556030375
	650	2	20.391000000	0.528653909	19.337376193
	651	1	22.431000000	2.444687163	18.639997121
	652	1	-20.391000000	-0.690939965	21.951130540
	653	2	-20.391000000	-3.304352291	20.732476358
	654	1	-18.352000000	-1.388319037	20.035097286
	655	1	-18.352000000	-2.606973219	22.648509612
	656	2	-16.313000000	-0.690939965	21.951130540
	657	1	-16.313000000	-3.304352291	20.732476358